3
Properties=species:S:1:pos:R:3:charge:R:1:forces:R:3 energy=-111.78989566133076 dipole="0.0 -0.0 -0.44433067761505757" pbc="F F F"
O        0.00000000       0.00000000       0.11181307      -0.75936366      -0.00000000      -0.00000000       0.00417644
H        0.00000000       0.78206058      -0.47332253       0.37968183       0.00000000       0.00094675      -0.00208822
H       -0.00000000      -0.78206058      -0.47332253       0.37968183      -0.00000000      -0.00094675      -0.00208822
