2
Properties=species:S:1:pos:R:3:forces:R:3 energy=-31.986503505773467 free_energy=-31.986503505773467 dipole="0.0 0.0 0.0" pbc="F F F"
H        0.00000000       0.00000000      -0.02137625      -0.00000000       0.00000000      -0.00133697
H        0.00000000       0.00000000       0.72137625       0.00000000      -0.00000000       0.00133697
